600
 energy: -1018.314285903081 gnorm: 0.000678954706 xtb: 6.3.2 (452493c)
H        -3.06656273064349    1.42602694085092    3.44918606691503
O        -2.72400027319555    0.66251627179065    3.93163403884767
H        -2.23123765167771    0.99609376573864    4.71042716227697
H        -3.81864807717544    2.91219439990342    1.98927072797842
O        -3.21872058734696    3.12118079628591    2.74062256673307
H        -2.86241487479880    4.01351880091263    2.48258335197734
H        -2.34251800907513    6.07851564198410    2.57042160274537
O        -2.31432026758127    5.38199106451630    1.86891940423291
H        -1.37753063029289    5.13768289142549    1.79037316985390
H        -0.39121589330327    1.49723510958098    3.01163338377877
O        -0.56349418448634    2.43398733749897    2.77960653055883
H        -1.52511533894015    2.55299206013687    2.72328503973686
H         0.91947199355879    4.23331171456928    4.88239801822822
O         0.16934229082158    3.62572127009405    5.00424583772925
H        -0.08487727561186    3.32571159899988    4.09510676954816
H        -3.21100789768217   -2.11188349240206    2.79234380355180
O        -2.55113917125600   -1.53069253647299    2.37256175627469
H        -2.57687742046038   -0.68837790181693    2.84898354810171
H         2.40159859120432    3.54310991718281    3.19723009159538
O         2.44790478143615    3.16760056425197    2.30152023377769
H         2.44425587600493    2.19311770974325    2.38825481406846
H        -0.14815848662541   -0.87214383528591    3.65673350926382
O         0.05463081507998   -0.11585474077292    3.07242905547370
H        -0.20464657274319   -0.40709589165862    2.17933534175173
H        -4.83851098351574   -3.42126131049746    2.51323549099219
O        -4.49834591333244   -3.05847073417696    3.35618261236691
H        -4.06959031805583   -3.77964342347250    3.85753219719552
H        -1.84761142754875    2.46159266836314   -3.12578504184282
O        -1.57245639749946    1.80007263426536   -3.78289417419918
H        -0.66420736328387    2.03805518799078   -4.04511776537081
H         3.14122174098390   -0.16962793656971    2.56682168778654
O         2.49979109946260    0.49333224626590    2.24227403507245
H         1.65779792915383    0.30534797784314    2.70773973440657
H        -4.69908514715784   -1.66296843990547    4.29263599119240
O        -4.69594455035136   -0.85626872945758    4.84493154523112
H        -4.02317165190752   -0.26438762970007    4.43502763759605
H         2.14278431630675    0.49366168824156   -3.57272693644609
O         1.24483921098661    0.48028826775247   -3.23153415028009
H         1.04931221735241    1.38614945484842   -2.90739663939331
H        -3.25339539486549   -1.53964072744179    0.88026731057941
O        -3.58967171243709   -1.71922446622149   -0.02826239331754
H        -2.91099612833058   -2.29467908588106   -0.42900460434527
H        -2.28452743869945    1.74862163675492   -5.39233783294969
O        -2.38121117343198    1.81173191965244   -6.36527339042073
H        -2.07987628843378    2.70753262764932   -6.56614019778776
H        -2.69144490232204    2.52083041820985   -0.92391203824398
O        -2.49540277403916    3.19738823930435   -1.59684152044097
H        -1.70123689760005    3.68268335896289   -1.27964862885835
H         1.10375062387157    4.24218149595521    1.93783806666110
O         0.31994053035292    4.80883105404393    1.81314922627693
H         0.55081185248653    5.72121868676604    2.03384451321852
H        -3.86261134737788    3.08643453529413   -2.91044611972501
O        -4.63267044761159    2.60452897980403   -3.23059163246300
H        -5.04832364027685    2.23528795691224   -2.42147400539578
H        -1.40152504949271   -0.61151625317261   -1.94459247863179
O        -2.27665016338209   -0.17793295557310   -2.03360622223490
H        -2.16038424814285    0.50855573653420   -2.71242468323610
H        -4.21496283096998   -0.05094982431810   -5.02943648555419
O        -3.85099473738096    0.16968463971175   -4.15671828899622
H        -4.13408469339086    1.08177270410868   -3.95854634560930
H        -0.08647275702946   -0.33063133694291   -4.29713537447762
O        -0.80494824999250   -0.78204470912436   -4.76799174692168
H        -1.52116078046822   -0.14288517331762   -4.82944960400643
H        -5.33700636283873    0.96769085496745    2.17277365448778
O        -4.66659780760479    0.32926327771138    1.88280081357172
H        -5.16055870468221   -0.37025507817781    1.43486009560402
H        -5.47933700595421    0.46869895769721   -1.39398458566770
O        -5.60985646500548    1.38338661482877   -1.05182556053707
H        -6.46886881982458    1.37564891635182   -0.60865322121868
H         5.13524874069923    4.13071633020947    3.18623506829743
O         5.05260712974773    3.85074589737464    2.26174474603816
H         4.11884045239905    3.58715404492627    2.14511368014160
H        -0.27554167047548   -1.13004387795999   -0.25650252157586
O        -0.63364408168317   -0.88893979633086    0.61686553826748
H        -1.46742964790957   -0.42248922230339    0.48293929320998
H        -4.91309767287032   -2.86077679992637    0.43431731410392
O        -5.15305249295543   -3.72134741058003    0.82733336842120
H        -6.12341000290080   -3.74951717566053    0.92745350835268
H        -2.44973848656817    2.42470062705373    6.06337890155516
O        -1.65905434992593    1.84322558274497    6.06208133517360
H        -0.91012763494435    2.42906317632243    5.88472534427570
H        -2.81642094538176   -1.55625497093053   -3.05735686510837
O        -2.59910570507806   -2.36218328285545   -3.56360693955379
H        -1.89609959132870   -2.05863829817870   -4.16581330061376
H         0.10581225303201   -2.18177884739198   -2.45140796987748
O         0.05997822674096   -1.38833749180958   -1.89051045860893
H         0.62897207410676   -0.70342923840768   -2.30117204231730
H         2.43745042653726    5.70552031587758    3.70146497848223
O         2.39594459225808    4.96504619332648    4.33570274488051
H         3.28097892907496    4.88673234758040    4.72105363688766
H        -5.25673738011758   -3.78476283596158   -1.94440005517733
O        -6.15198714744569   -3.38430940070312   -1.97322192810368
H        -6.02742805043454   -2.41564470306926   -1.97034640557065
H         4.22733121888752    1.71814480890362    0.38233117231591
O         4.95114568005249    1.19079696331490    0.76897595940939
H         4.98992315457737    0.35238418325667    0.27470223880169
H         4.73966637797165    3.33657329460615    5.14207595870481
O         4.94019499534177    4.28592150141800    4.96424023516598
H         5.78211770771603    4.44138956368141    5.39876794532545
H        -7.16032985209033   -0.46709376728461    0.60479347240882
O        -6.70245870044402   -1.23652447529109    0.99945266397523
H        -7.30655257019899   -1.98169615684925    0.89120456591539
H        -0.86053685062598    5.61547300781521   -3.19070508805033
O        -0.98011711941907    4.76825770287330   -3.62394402380235
H        -0.39918222900259    4.13142063780727   -3.16435035079086
H         2.53055342196341    1.83964746133499   -0.62254500370535
O         3.13933956520314    2.61126622191410   -0.59646430307886
H         2.74767074028157    3.30647715333226   -0.04779372889479
H         4.85240081629434    4.16625339653077   -2.65684739591503
O         5.19599073479808    3.58454771785903   -1.93820358934548
H         4.39044565694542    3.20235586735778   -1.52699110020525
H         4.95136283723737    1.35274331811121    4.44432226255158
O         4.48270939033369    1.65747932245222    5.24906596879205
H         3.52004848643757    1.64234647010494    5.03068047430958
H         0.30049233902529    2.75892694172704   -1.40296199446849
O         0.62452913213097    2.89025314127607   -2.31231011353643
H         1.28350980565168    3.60596925936377   -2.27129051947786
H        -0.10789750548432    2.38202469446039    1.06271857619144
O        -0.22723531649819    2.04010894168707    0.15765945230979
H        -1.13425201753048    1.69075729515291    0.15060766967024
H        -0.48128748135871    5.63755686400763   -0.98556443530962
O        -0.58712518472891    4.72520799718913   -0.67346661285821
H        -0.18935556410296    4.68113753103966    0.21462549017716
H         5.57009769933427    4.51707362623891   -0.55346942395448
O         5.54718265513282    5.23007639529805    0.12317394570737
H         5.48846148990627    4.75382588465285    0.99373983016812
H        -3.55752424376022   -4.35276411197880    0.96391672848371
O        -2.74091651162273   -4.80959209570250    1.22649856995764
H        -2.50358505638669   -5.40671326210167    0.49207353263422
H         1.29374844813393    2.16321271002380    5.07151850692507
O         1.89899275494473    1.46107138950528    4.79537585844019
H         1.58413722023420    0.62959704406356    5.19804897078524
H        -6.34177038190279   -0.86014767926819    4.14113146581513
O        -7.17232436260534   -0.86333040134324    3.64378726869377
H        -6.93640896583126   -0.96207752550167    2.69531429948624
H         5.66711409924251   -1.50207295606487    5.50525690831231
O         6.44102266159111   -1.35500040594890    4.94972046385667
H         6.16032690177247   -0.69155752444670    4.28580526478479
H        -4.58130239019806    2.91140133823202    5.54326479382205
O        -3.73574569656010    3.38441195882027    5.40756243450144
H        -3.57778737993249    3.34681979221272    4.44595114207894
H         0.91539110140780    0.81455247767874   -0.18297784663759
O         1.79322028348184    0.39067220719457   -0.26486927582286
H         2.12560717099991    0.35030746432344    0.66480326474964
H        -3.47369083530874    0.84668468625347    0.80860599885876
O        -2.74916070304240    1.10545995775656    0.19633402405078
H        -2.82395540903999    0.53737553839464   -0.59954782656531
H        -4.57934589985684   -0.60309204666778   -2.87834290022645
O        -5.08303147945398   -0.94675000579765   -2.10242662566832
H        -4.44067153980192   -1.17698846444151   -1.40529793256237
H         1.27963195792419    5.96023358710378   -2.26750665318764
O         1.92087954402220    5.25018079723117   -2.18469166020600
H         2.22900987273819    5.27322382166120   -1.24563773162984
H        -0.73217016084366   -2.41058683428054    1.46355800231442
O        -0.54571440326757   -3.27444493842607    1.87976712153214
H        -1.33306064622547   -3.82097626592688    1.71135569213981
H        -1.81522713614152   -3.04074121257911   -2.08793691140421
O        -1.80117264079359   -3.33263427607860   -1.15825137492891
H        -0.87224269475625   -3.48236450000363   -0.89634248524133
H        -8.62030698478557    0.85838949264634    0.97479803345369
O        -7.94242406449381    1.02342306640202    0.28765511893924
H        -8.42018443637544    1.15329370932301   -0.54716524470584
H        -7.44539132233723   -0.80271960484989   -4.85511014021400
O        -6.71580626975017   -0.25450104847516   -4.54608148283175
H        -6.54916428183140   -0.53757234073361   -3.63733450706260
H        -6.13753646117312   -3.73542334318404   -4.88054312310594
O        -6.86623448093208   -4.12791206565589   -4.36657340125412
H        -6.68117398128588   -3.80211473792482   -3.44803587839061
H         3.78001177466512    5.25888788793621    0.21792796264370
O         2.81497276363946    5.16716969792536    0.28383963602420
H         2.55973797436080    5.78444965361307    0.99594961449372
H        -8.20528694448927   -3.01929128309851   -4.59637662490707
O        -8.75640698672972   -2.21483856370457   -4.53167626097756
H        -9.67308764569534   -2.49877892478740   -4.41599120911867
H        -3.53919844033924   -5.82994316407217    2.32063349946632
O        -4.02627613172216   -6.51217101155782    2.83762668804219
H        -3.58949744906522   -7.34226794594696    2.57919909100426
H       -10.00813190797837   -0.88248113262773    0.18183576345995
O        -9.44132653072295   -1.62745758132084   -0.03280778521436
H        -9.98052573601146   -2.42442476400740    0.15198228762616
H        -5.57637079177956    0.89627438683282    5.30747688817050
O        -5.88768369183275    1.80582807321069    5.23144059241713
H        -6.05357207969167    1.96629679416809    4.27921789555949
H       -10.04476101870352    2.43300682745370   -0.90192114745930
O       -10.43974783380096    2.46750074085687   -0.02338718992274
H       -10.79350055534179    1.57429871080979    0.14100490226897
H        -3.08856588142675   -4.30917168835900   -1.54728257251221
O        -3.85899712137938   -4.72908403743539   -1.97289800312313
H        -3.58774208123453   -4.89385037936267   -2.89532610442134
H         6.56546159906422    2.19784438114486    5.81059604403846
O         7.20115346854547    2.90260423927823    5.65572761844371
H         8.08846024355426    2.54285011253446    5.86715166725361
H         8.21495861122749    5.14752430594561   -1.11076401826721
O         8.14269728088130    5.67183036833751   -0.28676167437335
H         7.20961505812001    5.52123427012519   -0.01385161116035
H         0.51802848270617   -0.72251813938782    6.63669937717581
O         1.21986673124362   -0.89780261765671    5.96746691103019
H         0.80667676949863   -1.53410764064287    5.36059140836578
H         6.18313651624356    2.40818034110053    0.71605225303677
O         7.05504761499780    2.83180291921104    0.58244984444121
H         7.36703822818779    3.02657060319648    1.48325221792749
H         3.58355803267616   -1.87240629106492   -0.66122072065064
O         2.64351596804591   -2.06085090767290   -0.86908784562348
H         2.18599108527428   -1.21280941967855   -0.69433596542693
H        -1.20274497691675   -2.40088723877279    4.88829877032925
O        -0.36488725064676   -2.41123554931448    4.39418344955042
H        -0.52926284195208   -2.85602667329442    3.53345048188790
H        -2.90369607433323   -3.24071152906436    5.84569663414086
O        -2.62283492550466   -2.32183270134400    5.94115894238077
H        -3.40017674355932   -1.77211307625898    5.73397747334995
H        -9.06286000705673   -2.76854640826224    2.24686296804768
O        -9.44491938949591   -2.14696928876142    2.88796586876680
H        -8.71147012904128   -1.90259184601199    3.46885959561635
H        -8.12801549169886   -5.71486745240115   -1.05813475671851
O        -8.30388341082111   -4.75879213458064   -1.13023440015177
H        -7.49978145865789   -4.31608026422392   -1.46001604921707
H         8.40686279408070   -1.47047180026979    2.87236785856193
O         8.18271995191817   -2.38759081392155    3.12189184379385
H         7.70192534402371   -2.32114831617134    3.95670801538276
H         1.46806388219623   -3.30441928376660   -0.51670140074743
O         0.71893244708330   -3.92605090806396   -0.53017648977344
H         0.67121683091443   -4.41826499400898    0.30710051735030
H         2.64676942198772   -2.19502980757606   -2.49716776928278
O         2.56753383336269   -2.24623499817558   -3.48573281014887
H         1.67561290485294   -2.59209082070820   -3.66490970981265
H        -3.77338772862207    0.45264059236315   -6.90088421861918
O        -4.14562144661044   -0.42973483350848   -6.78036398786571
H        -3.43770983131582   -1.04533188048202   -7.04500935646135
H         5.74445936697676    1.98268472690984   -2.31669933543736
O         5.94487091164886    1.02971240246952   -2.33464797178226
H         5.14205013654091    0.58088164589785   -2.06075151498352
H         0.08705076257247   -4.43067960767098   -3.15752807487122
O         0.22907513378318   -3.54584710949941   -3.54309197092768
H        -0.29175664566431   -3.54913632977461   -4.37231823806749
H         5.38201868166454    0.82997368534633    2.39027881773877
O         5.88366704665802    0.66060650370640    3.21224485163980
H         6.81597832727285    0.65934640740406    2.93402978061691
H        -7.78159352785877   -4.62698346687683    1.80586842740297
O        -7.83794293250287   -3.81059055484098    1.29317706564030
H        -8.19085712584195   -4.09905378567544    0.42227762985431
H        -4.78857778088246   -2.09971100883652   -5.79596096090338
O        -4.63979339377675   -2.88108645980993   -5.25352407468141
H        -3.96218609764199   -2.62154607529782   -4.58872782286434
H         7.18557234549997    0.68353419909287   -1.28716558941473
O         7.91706491237897    0.76637072162288   -0.62535771504482
H         7.65464158200338    1.61326145160939   -0.14654962611919
H        -2.61164805987468    4.80149011431165    5.82338390789583
O        -1.82316876881074    5.36080134324137    5.78963005910141
H        -1.07609144300253    4.77354336466698    5.57859418407923
H        -7.40800600902707    2.41789153147082    2.55188216037374
O        -6.45509958892521    2.25564895133098    2.64664617488157
H        -6.03168418614856    2.77990258742063    1.94185576391882
H        -5.03506229317832    2.51502106348577    0.03751629310778
O        -4.87069789925740    3.18256587706068    0.72919429397076
H        -4.63258936493264    4.01442170069661    0.27282153602426
H        -1.29619634528981    0.34195938185270    7.03877163790908
O        -0.97824902998614   -0.51038752801661    7.37502347923874
H        -1.57191169631072   -1.18423328034092    7.01401964137393
H       -12.52346868262592    2.42295889184709    2.10073921991257
O       -12.51095240303996    3.29679260153311    1.62789121331900
H       -11.82825899996673    3.20636721734599    0.94484524233524
H         9.08280306397527    0.73260021128161    2.42553756820372
O         8.34070168531287    0.14566046129236    2.19167815934648
H         8.16567209517768    0.23260458091872    1.24614274104031
H         8.21573496499355    4.20790616088803    2.95908973642544
O         7.95087921782194    3.26871402924597    3.09681787217561
H         7.53607061079933    3.20158445996673    3.97944642689429
H        -9.45260447658601    0.84526107879440    2.88891212627153
O        -9.80748355509671    0.37167843766527    2.12094179856372
H        -9.72550721621016   -0.58947769373391    2.34335116965876
H        -3.17201553041830    5.47746743710157    0.29597735400524
O        -3.76666380574820    5.29257424259514   -0.45468315502845
H        -3.28015054407068    4.69976011905310   -1.05281379232083
H        10.75914254593373    2.38002120792931    2.47727808029165
O        10.18367326967653    1.94233336301223    3.12288993959442
H         9.35621446287411    2.49495504439710    3.14100835479681
H         4.11266584708770   -0.06044005061363    5.84907478097525
O         3.89046641385668   -1.00870008932215    5.84945642759951
H         2.93840246619340   -1.04824720570674    6.05721642268562
H         5.28779628242916   -0.96370529306824   -3.56458048889576
O         5.81490249854420   -1.65336402107004   -3.12389920897004
H         6.69089430689603   -1.64355718855496   -3.54639848500215
H         1.65333824732319    7.34790387592489    2.33467908636617
O         2.47407156196223    6.82988141588247    2.36753702164495
H         3.21035448764021    7.44917730201354    2.18199391927919
H        -9.45508574977645    2.92835303726843    1.36299591079343
O        -8.94897541127820    3.24436436393877    2.13503585587932
H        -9.58984353124690    3.63029847650708    2.75218365873353
H         3.35894278786614   -0.88022665506232   -4.06752248201942
O         3.90806308226179   -0.11275118404061   -4.33904382764379
H         4.08836061452061   -0.24484565366525   -5.28013587386368
H         5.55653207855787   -1.62676274802438    0.16989744898719
O         5.09742389792839   -1.16010125594818   -0.55955759420697
H         5.55398318796451   -1.40919754579945   -1.38326650064788
H        -6.82244952169295   -5.76716566942026   -3.79259010339268
O        -6.63248498561342   -6.60554900280459   -3.32321868576933
H        -6.31683174574418   -6.35025416989028   -2.43377005910907
H         3.20469894194805   -2.23735323597105    2.94437473576604
O         3.86620015624571   -1.56507724243267    3.19252165718821
H         3.85790090616582   -1.46667153378970    4.16499323846130
H        10.76618482447374    1.48941223063202    0.50691258139270
O        10.47519517673131    0.60696107013201    0.17295958717753
H         9.57942364088827    0.69293958917748   -0.18626727969467
H        -0.63255076959056    7.80734211480844    1.39104254462072
O        -0.08591735683312    7.57136745886552    2.16023302735001
H        -0.71101761749899    7.53089579390721    2.90351973369730
H        -6.67186285175760    4.84765178518933   -1.98820076005379
O        -6.81960603772338    3.97787572093920   -1.61049226212775
H        -7.09714531543965    3.39939972834224   -2.33067686057643
H         8.00589176817714   -0.98460073717586    5.52298792652407
O         8.94975056540109   -0.80790712746425    5.71060574719911
H         9.06546748893610   -0.87158332232290    6.66810008565717
H        -3.63361251550658   -5.62233692548480    4.44097556702895
O        -3.15129748636672   -4.86676190951711    4.81227836329508
H        -2.24242634421353   -4.98075876596689    4.46529025443521
H        11.04599063948569   -0.74702707913097    1.00551942523877
O        11.42528081051299   -1.55580791764959    1.40842478850446
H        11.38518190924294   -1.37478420761811    2.37299707487289
H         3.40469301603757   -2.98524964934804   -4.77888927851788
O         3.75776941000695   -3.39483886254805   -5.59502760281681
H         4.45119119467944   -3.98397810398880   -5.27588488157038
H         5.35635321818620   -3.26511887923409   -3.32441494196915
O         5.28696177227898   -4.23478722681652   -3.47831197746591
H         6.14100257752458   -4.56892541386696   -3.16973000830522
H         9.01056853390145   -3.41552286970293    1.83371870772335
O         9.50503796601829   -3.40360056470900    1.00327508736950
H        10.27361276070349   -2.82421250673368    1.17637511851173
H        -0.87963282078847    7.61596442618713   -1.14054062528857
O        -0.16180587694320    7.20758639269621   -1.65278793296492
H         0.65759950468610    7.56804507995311   -1.26325880239528
H        -6.61214695284883    6.38258616559459   -0.17597902325701
O        -6.00070255957795    6.81803251463505   -0.78489136630714
H        -5.22708690336823    6.23095472452431   -0.84103609488793
H        -2.77671918495845    7.98890334138812    0.53416623527242
O        -1.88848533762625    8.27425065327602    0.19142550411432
H        -1.93160649684421    9.22873952597512    0.13931941528671
H        -4.40516171989146    6.92903153904949    1.60737007349982
O        -4.30261021786608    7.76734916658274    1.12234207919870
H        -4.93340904264786    7.69500904574922    0.38136004176551
H        -8.34342452923430   -1.59396713870587   -2.95700488821530
O        -7.97603347942391   -1.13148084915722   -2.18002897889692
H        -8.46621905168954   -1.44769710511797   -1.39461676015808
H         3.22322536619996    5.25909982083299   -3.24774724365374
O         4.07813423537512    5.18163031683643   -3.72688144478676
H         3.94890025557023    4.40614694176895   -4.29421329879342
H        -7.67346495184303   -7.96404817153831   -0.46259610878529
O        -8.21039396199139   -7.51562341199217   -1.14149770457981
H        -7.77358584666526   -7.62554445889324   -1.99306965630427
H         8.43009240415168   -2.55105188703151   -0.00984708767788
O         7.79020044675029   -2.12370467889066   -0.61682976634830
H         8.00499092072028   -1.18766082683236   -0.66752527818233
H         0.62491631290474   -6.59309128249392   -2.16016020088211
O        -0.05044388809286   -5.87621957703874   -2.15284460303434
H         0.29655092380001   -5.22908493418674   -1.50378895244451
H        -7.90319644266942    4.40391149943291    1.42096717642397
O        -7.23813855721159    4.92095368029099    0.92546107804747
H        -7.06200676979931    4.40395770630902    0.12114651247760
H         2.41951958252185    2.63088422415637   -4.52518245366131
O         3.35391049548743    2.67052724273881   -4.26280638205875
H         3.70865180529776    1.77641148904956   -4.32406792579154
H       -11.21906903847658    5.24714193432431    3.76925376132688
O       -11.02512293060505    4.33597758525500    3.55467508693955
H       -11.67440320121521    4.05539667562915    2.85934556682356
H        10.53660087889124   -1.02182014678919   -2.75887022478192
O        10.18602762369702   -0.54960645393876   -3.53706103104913
H         9.96687201107096    0.36501747571332   -3.26354674064527
H         6.77494599563080   -2.37448952071141    2.15561000533254
O         5.94771311692008   -2.34225546991493    1.63828819674072
H         5.23580465802084   -2.07361910266769    2.24742812468310
H        10.86301381402056    0.29042813875639    3.67430742028936
O        11.04535043929326   -0.64043195664374    3.86613835887590
H        10.35450696301912   -0.92736574238568    4.48019063231671
H         8.71641100198039    5.57821259718785    1.44646792325924
O         8.70578588646852    5.68569115864771    2.41220090912923
H         8.07347930455656    6.40055657644560    2.58391417265839
H        11.08092030950810    3.46456839474210    0.17852598694724
O        11.44024748881355    2.94508950768859    0.92355165623724
H        12.38870428777220    2.84737428994568    0.71007033176427
H        -1.30988761140206   -6.44721658335102   -1.21476842262903
O        -1.93433043963658   -6.72490306717422   -0.50242641666953
H        -2.65286476738668   -7.20833001012288   -0.96504955727526
H        11.36281176878455   -1.97816686586071   -0.61056092834115
O        11.18643087173793   -2.11094144294199   -1.54592422057932
H        10.88372197671169   -3.05236590318102   -1.61924496222561
H        13.09180436042610   -1.53874582135570    0.74221736517293
O        13.82752850707467   -1.32367979728708    0.14191489386117
H        14.15765244776004   -2.16012795878674   -0.24418607047397
H        -6.00616177941107   -6.14081137430746    0.14357078175039
O        -5.70473800138226   -6.21900776116155   -0.79206752578773
H        -5.04384659027371   -5.52261759696824   -0.93823602934052
H        14.66399536586617    2.07725465070217    0.01557192045736
O        13.82179252320799    2.47369800687570   -0.23702303766951
H        13.36795127290103    1.76622948673829   -0.75564847929009
H        -5.63732009225723   -6.31198174926478    2.23233921631422
O        -6.48526057756114   -6.22864473338473    1.75077853534692
H        -6.83464887750166   -7.12597602977121    1.66547248975964
H         0.08007741885118   -5.26886210480404    4.11334955547963
O        -0.77827796612575   -5.56983733790992    3.75326362686259
H        -0.78935059525826   -6.53779646167238    3.85480026309266
H        11.69924385348558    0.46615455930743   -0.99636036937705
O        12.55052743333318    0.48203631630918   -1.47225190640700
H        13.07283762117108   -0.25033065731126   -1.09694071210348
H        -6.30304319582500    2.66308897192300   -3.99357673120549
O        -7.21573804517162    2.34152121679309   -4.02247457747622
H        -7.11168313648409    1.42402886960031   -4.35566111164679
H        10.08503649195047    2.05426726827382    5.06367693996693
O         9.62002370224142    1.78026721283584    5.86509847743853
H         9.36991267911949    0.84358935053035    5.70139760641848
H        -1.59034965805371   -3.20057848027124   -6.29232933982665
O        -1.16095855994298   -3.90354629936865   -5.77029103564337
H        -1.87100551600589   -4.43591220316131   -5.36937024661589
H       -11.20703755876197   -1.79416978162136   -3.13563140059298
O       -11.29773207560381   -2.68115001343677   -3.55496478343596
H       -12.23839189578756   -2.77531829262557   -3.72179859069666
H         3.89484830905833   -4.73655109162755   -2.70470014222090
O         3.03600245197928   -4.94193013402866   -2.27405330346690
H         2.37064110366216   -4.40060530661094   -2.70621835127329
H        14.29435165346707    1.26069958528468   -3.62851491758944
O        13.39740068406055    1.61636533473364   -3.78584422432643
H        12.87946272278182    1.21246576601700   -3.06718207460620
H        15.57282038063043    0.32821007265448   -1.83811423626870
O        15.41592896410297    0.13085978476832   -2.77154833860497
H        14.81754307350298   -0.63693080281460   -2.80283331665487
H        -1.63364009999401   -8.41718700086913    2.34368708878588
O        -2.39217415067030   -8.37631233794823    1.73790347553447
H        -2.10027273425037   -7.88870903791122    0.95166862119322
H         8.06348349456058   -3.45726661410167   -3.35569091929684
O         7.83704504898950   -3.94347719670516   -2.54853504713748
H         7.75233677771509   -3.23515333342710   -1.87021380069690
H        -3.97334657999964   -7.96053587940220   -2.62184718537791
O        -3.95540111692127   -8.01925756346267   -1.65436004411728
H        -4.66486651022582   -7.41726634291046   -1.32906089823858
H        13.22884423529701   -1.58584042092250   -3.91933944150996
O        13.50531483121869   -1.90450142369876   -3.03133754716340
H        12.67451081962027   -1.96089919536052   -2.52297796787884
H        16.55995182173588    0.19231444907515    0.45606930555821
O        15.75414683684274    0.51903362339272    0.05793218478218
H        15.06350899905818   -0.16147579996863    0.20804217873540
H         7.42801898903969    8.14101526087767    1.52582880896808
O         7.10378288254692    7.95125929191334    2.43218709062930
H         7.38414168678280    8.67963095699223    2.98634238004604
H         2.60146688178559   -3.88112541948670    1.58025259523082
O         2.13394163242003   -3.41633021440341    2.30747385550133
H         1.19481361399500   -3.32467852875929    2.06001704757055
H         2.61099762336853   -6.73552109756558   -2.06902208588481
O         2.03085564676228   -7.47054946868161   -1.81624788526326